test                                    
           1
    11.692993    0.000000    0.000000
     0.000000   17.428391    0.000000
     7.416434    0.000000   11.656975
   Mg   B    H 
   8  96  96
Direct configuration=     1
   0.96029042  0.00519919  0.28091206
   0.96047390  0.50526234  0.28011074
   0.03336423  0.46553106  0.73325800
   0.03335995  0.96556239  0.73285054
   0.53676097  0.29134824  0.24047268
   0.53784702  0.79132222  0.23994392
   0.48231991  0.20789073  0.74773820
   0.48373776  0.70624265  0.74640797
   0.94924331  0.43603586  0.92906581
   0.94826510  0.93708604  0.92969390
   0.17254778  0.48073234  0.42871920
   0.17275230  0.98146916  0.42974154
   0.82406400  0.00224373  0.55569383
   0.82490923  0.50166968  0.55642410
   0.02340318  0.04690993  0.09238760
   0.02308252  0.54758575  0.09221859
   0.08978082  0.48477013  0.34819528
   0.08900756  0.98421549  0.34872734
   0.94678235  0.05446204  0.92928153
   0.94617479  0.55412634  0.93003131
   0.03290297  0.44920519  0.09979281
   0.03192888  0.94783685  0.09965059
   0.89669717  0.49871380  0.64305773
   0.89625430  0.99695922  0.64373959
   0.52510569  0.32028403  0.06322166
   0.52371781  0.82016949  0.06512046
   0.41981909  0.24472865  0.62517566
   0.41940121  0.74495470  0.62563464
   0.63992896  0.28182087  0.34846233
   0.64063261  0.78158616  0.34754801
   0.43023554  0.18892310  0.95856719
   0.42893738  0.68943882  0.95960424
   0.46690789  0.16253099  0.51929510
   0.46681416  0.66260144  0.51980008
   0.64933093  0.27915098  0.93964681
   0.64889210  0.77934804  0.93875596
   0.30119865  0.22917247  0.07932122
   0.30383826  0.72940639  0.07702772
   0.58537517  0.35931668  0.46117105
   0.58515829  0.85921503  0.46201968
   0.09586447  0.49448167  0.87466558
   0.09629951  0.99526120  0.87414119
   0.10574409  0.06494086  0.41299824
   0.10713262  0.56570862  0.41134386
   0.87377424  0.42013691  0.57554913
   0.87673202  0.92106896  0.57461380
   0.86648119  0.48262219  0.16577174
   0.86433174  0.98142181  0.16599247
   0.06190004  0.41170295  0.43398705
   0.06090216  0.91117312  0.43402373
   0.81393588  0.49630690  0.05471064
   0.81421870  0.99624475  0.05432896
   0.16288172  0.49926980  0.97187761
   0.16086566  0.99811745  0.97223648
   0.94206642  0.08216218  0.54364063
   0.94229997  0.58216288  0.54271330
   0.52649906  0.34022863  0.93948653
   0.52715049  0.83979355  0.93963008
   0.58777213  0.20423317  0.54903717
   0.58812889  0.70372878  0.54852504
   0.48620234  0.32069504  0.41865024
   0.48606408  0.82081762  0.41790558
   0.43166511  0.15855369  0.07542234
   0.42968542  0.65920532  0.07490884
   0.37761843  0.24276192  0.52389968
   0.37871307  0.74323174  0.52168955
   0.56877315  0.21677565  0.06893881
   0.56809783  0.71559504  0.06929405
   0.38988708  0.28172985  0.94768400
   0.39110998  0.78133189  0.94631184
   0.69474231  0.28032866  0.43591830
   0.69391179  0.78045670  0.43802342
   0.37532389  0.32998647  0.07181607
   0.37344417  0.83044546  0.07256893
   0.56957646  0.30802099  0.57819612
   0.57072857  0.80923825  0.57662475
   0.50176420  0.20822368  0.39865162
   0.50077011  0.70881306  0.39939148
   0.59821339  0.18255231  0.94059866
   0.59825894  0.68237589  0.94071027
   0.09553242  0.41290868  0.92983786
   0.09524916  0.91321080  0.92922297
   0.07684941  0.04752802  0.55052167
   0.07736118  0.54737882  0.55170291
   0.91985275  0.45257828  0.43940580
   0.92048088  0.95332876  0.44026240
   0.90021399  0.07164721  0.07819864
   0.90047424  0.57136729  0.07890127
   0.38328994  0.24828944  0.15820395
   0.38165043  0.74838446  0.15807636
   0.42422185  0.33776417  0.56362850
   0.42397483  0.83719229  0.56521537
   0.63923011  0.18772571  0.39902141
   0.63962106  0.68838884  0.40037395
   0.55556494  0.25078205  0.87468816
   0.55673945  0.74953729  0.87507917
   0.89644033  0.41558798  0.05997477
   0.89485149  0.91517896  0.06098813
   0.05768966  0.44726550  0.55669225
   0.05847550  0.94822159  0.55589159
   0.95890528  0.05722155  0.42158118
   0.95887532  0.55685572  0.42249727
   0.08334310  0.08287991  0.95983705
   0.08243982  0.58463109  0.96027502
   0.91004866  0.39654057  0.87481988
   0.90824793  0.89743718  0.87332095
   0.26942001  0.47595073  0.42232045
   0.27275508  0.97465511  0.42343411
   0.71771270  0.02398450  0.56822250
   0.70884578  0.52591694  0.57238262
   0.02172385  0.09960073  0.15350494
   0.02671338  0.59672847  0.15052612
   0.13889120  0.48653422  0.23740247
   0.13326240  0.98660030  0.24547782
   0.97512321  0.10106543  0.84221326
   0.96816115  0.60258660  0.85047996
   0.06822059  0.41287319  0.15463342
   0.06328110  0.91401940  0.15418778
   0.83633319  0.01885782  0.74835188
   0.83244342  0.51784153  0.75213629
   0.50952898  0.36637368  0.14045438
   0.51332803  0.86488340  0.13319352
   0.33867654  0.25124678  0.73338764
   0.33855076  0.75054771  0.72889230
   0.71976428  0.28688632  0.23835134
   0.71893658  0.78668928  0.23798440
   0.38863019  0.14138551  0.91590422
   0.39549784  0.63943063  0.91286545
   0.43916092  0.09952256  0.50381104
   0.44087800  0.60117612  0.50238222
   0.78235353  0.28091166  0.86749433
   0.78643936  0.78158427  0.87160953
   0.18128827  0.22178215  0.13123190
   0.17892823  0.72401147  0.13432171
   0.64488914  0.41742965  0.45074547
   0.64448249  0.91848953  0.44862686
   0.17366028  0.00964619  0.76696079
   0.17098832  0.51224547  0.76841848
   0.17632886  0.12182028  0.35888441
   0.16398412  0.62749749  0.36183284
   0.82486130  0.35350987  0.62952940
   0.83011483  0.85705411  0.62699306
   0.80351445  0.46289610  0.26231258
   0.80019330  0.96099978  0.26154354
   0.06676617  0.33783386  0.42808450
   0.06676385  0.83561202  0.42878221
   0.69279072  0.00354634  0.09387088
   0.69432434  0.50430840  0.09287492
   0.27602794  0.49154047  0.92626665
   0.28360955  0.99376817  0.92073952
   0.91832612  0.14213208  0.57276125
   0.91727298  0.64587307  0.57381910
   0.56446969  0.40029489  0.89248422
   0.56592095  0.90403712  0.89448333
   0.62488167  0.15305071  0.59561379
   0.61959096  0.65411539  0.59552854
   0.40560900  0.35451750  0.39945553
   0.40385144  0.85539639  0.40462728
   0.41129697  0.10433048  0.13723782
   0.41043607  0.60241090  0.13376915
   0.26642846  0.26515217  0.53887647
   0.26723028  0.76321984  0.53735267
   0.61178153  0.19462922  0.12734889
   0.60425558  0.69290130  0.13245355
   0.35162665  0.30484805  0.88075684
   0.35358943  0.80880220  0.88263413
   0.81083288  0.29620877  0.40923270
   0.81552784  0.79539884  0.40659374
   0.28921116  0.37786798  0.13121967
   0.29347266  0.87855194  0.13653984
   0.61987074  0.33364983  0.62623166
   0.61637597  0.83351483  0.62989291
   0.48032177  0.20174432  0.33387582
   0.47592415  0.70192293  0.33365200
   0.65514631  0.12312178  0.89407972
   0.65390935  0.62134473  0.90197874
   0.15398339  0.35223868  0.88682222
   0.15205210  0.85332259  0.89072005
   0.08687302  0.07759833  0.62782569
   0.08100056  0.57990312  0.62712288
   0.86905050  0.41603600  0.38767496
   0.86791434  0.91833489  0.39062345
   0.83014327  0.13135011  0.13062573
   0.83229196  0.62807769  0.13731930
   0.34347672  0.26147571  0.25299010
   0.34169126  0.76284394  0.24914003
   0.36598860  0.38521743  0.62390915
   0.35934715  0.88490349  0.62380080
   0.71289493  0.13619763  0.33925277
   0.71938876  0.63532634  0.33250497
   0.61689096  0.26875962  0.76890537
   0.62155886  0.76957684  0.76243682
   0.85769297  0.34960514  0.11081670
   0.85572209  0.84919267  0.11343197
   0.11366740  0.39634926  0.58597806
   0.10952406  0.89493488  0.58653518
   0.91228848  0.08571362  0.37755283
   0.91253313  0.58510237  0.37780251
   0.14958804  0.14693738  0.92208408
   0.15251900  0.64723561  0.92060003
Direct configuration=     2
   0.96045194  0.00487019  0.28068769
   0.96082346  0.50499758  0.27909142
   0.03253880  0.46551917  0.73361558
   0.03253030  0.96558177  0.73280099
   0.53616655  0.29122959  0.24116607
   0.53833717  0.79117680  0.24010676
   0.48194515  0.20895032  0.74815732
   0.48477853  0.70565786  0.74549819
   0.94900609  0.43618658  0.92896065
   0.94704570  0.93826707  0.93019874
   0.17275964  0.48060159  0.42791764
   0.17329028  0.98204606  0.42991944
   0.82330239  0.00292575  0.55534399
   0.82483833  0.50181395  0.55679742
   0.02407203  0.04673180  0.09277083
   0.02349038  0.54803881  0.09237892
   0.09055164  0.48500158  0.34809546
   0.08897438  0.98389952  0.34925648
   0.94732416  0.05504949  0.92888109
   0.94609519  0.55437701  0.93041709
   0.03394377  0.44934228  0.09849872
   0.03194030  0.94666678  0.09817225
   0.89604378  0.50008570  0.64290746
   0.89518531  0.99661541  0.64422816
   0.52666062  0.32020828  0.06150684
   0.52391388  0.81989817  0.06516171
   0.41996197  0.24515918  0.62546467
   0.41918990  0.74559874  0.62627922
   0.63943606  0.28196998  0.34923235
   0.64082488  0.78150777  0.34744993
   0.43067752  0.18816615  0.95791199
   0.42814480  0.68916509  0.95989667
   0.46677820  0.16248842  0.51944286
   0.46660016  0.66266940  0.52044540
   0.64994654  0.27920857  0.93984793
   0.64910899  0.77959979  0.93810421
   0.29918661  0.22917152  0.08132388
   0.30426278  0.72965034  0.07685476
   0.58578593  0.35935121  0.46055942
   0.58534703  0.85916990  0.46222960
   0.09623814  0.49403928  0.87471271
   0.09710254  0.99557087  0.87367068
   0.10530466  0.06459294  0.41451542
   0.10803833  0.56612419  0.41125191
   0.87404159  0.41969732  0.57502336
   0.87995449  0.92157987  0.57312844
   0.86784379  0.48344054  0.16516327
   0.86356927  0.98106351  0.16559494
   0.06207505  0.41150943  0.43422052
   0.06011260  0.91044102  0.43430429
   0.81457415  0.49625449  0.05497232
   0.81509462  0.99613250  0.05422540
   0.16292139  0.49946872  0.97159495
   0.15916613  0.99715330  0.97220770
   0.94267648  0.08223720  0.54348589
   0.94310679  0.58235299  0.54172161
   0.52570553  0.33989725  0.94048619
   0.52702878  0.83909130  0.94074544
   0.58845924  0.20476853  0.54885382
   0.58912757  0.70380511  0.54782929
   0.48607183  0.32067505  0.41858341
   0.48584178  0.82090856  0.41712579
   0.43173202  0.15783916  0.07577345
   0.42777585  0.65911417  0.07479242
   0.37740721  0.24313461  0.52519341
   0.37957632  0.74406785  0.52084312
   0.56945368  0.21744000  0.06953357
   0.56808864  0.71510051  0.07025514
   0.38913182  0.28168144  0.94861036
   0.39158208  0.78091166  0.94587857
   0.69587088  0.28012388  0.43547857
   0.69429906  0.78038491  0.43960205
   0.37528689  0.32992191  0.07165886
   0.37161335  0.83081849  0.07312535
   0.56774389  0.30789641  0.57865253
   0.57001637  0.81031767  0.57559369
   0.50209845  0.20796391  0.39904631
   0.50015830  0.70911464  0.40037866
   0.59792411  0.18297622  0.94043581
   0.59802219  0.68261721  0.94067378
   0.09459332  0.41219026  0.93101108
   0.09399522  0.91281817  0.92980669
   0.07664710  0.04692276  0.54918558
   0.07764587  0.54660546  0.55146042
   0.91982482  0.45177704  0.43805791
   0.92108080  0.95327557  0.43975132
   0.89956807  0.07159643  0.07747151
   0.90008171  0.57102741  0.07886588
   0.38372297  0.24778871  0.15848859
   0.38051159  0.74796393  0.15813219
   0.42435894  0.33809097  0.56246719
   0.42386157  0.83697802  0.56562468
   0.63836700  0.18711096  0.39804022
   0.63920963  0.68837736  0.40064638
   0.55539778  0.25181306  0.87509386
   0.55779147  0.74936476  0.87576913
   0.89776453  0.41560468  0.05942906
   0.89460086  0.91478189  0.06142457
   0.05752188  0.44635263  0.55665065
   0.05905615  0.94822591  0.55507710
   0.95895116  0.05730414  0.42167191
   0.95887961  0.55656579  0.42345410
   0.08379466  0.08247571  0.95977326
   0.08201122  0.58594745  0.96064402
   0.91220166  0.39506365  0.87320755
   0.90876790  0.89699314  0.87043087
   0.27257967  0.47811040  0.42036757
   0.27785969  0.97561351  0.42273183
   0.72305579  0.02265408  0.56199794
   0.70701403  0.52618539  0.56997881
   0.02068283  0.10204691  0.15351566
   0.03063029  0.59679205  0.14810280
   0.14294823  0.48555629  0.23216925
   0.13245666  0.98566619  0.24693851
   0.97759426  0.10071167  0.83902458
   0.96389001  0.60385523  0.85511114
   0.07129639  0.41301860  0.15724206
   0.06189093  0.91481230  0.15704290
   0.83662083  0.01871818  0.74562012
   0.82919303  0.51667607  0.75266905
   0.50853436  0.36623021  0.14444775
   0.51592401  0.86397525  0.13113952
   0.33930648  0.25058031  0.73081942
   0.33849426  0.74921376  0.72275925
   0.72478397  0.28741970  0.23608656
   0.72327705  0.78701670  0.23526959
   0.38093524  0.14140002  0.91676761
   0.39455275  0.63758063  0.91080494
   0.43769158  0.09790081  0.50583037
   0.44094757  0.60083103  0.50292232
   0.77864296  0.28163853  0.86528370
   0.78630728  0.78294163  0.87356019
   0.17941181  0.22078804  0.13246240
   0.17576278  0.72526259  0.13809153
   0.64721174  0.41757300  0.45264623
   0.64627865  0.91956095  0.44847244
   0.17142997  0.00858660  0.76940277
   0.16615067  0.51372844  0.77225453
   0.18381117  0.11892377  0.35795085
   0.15937751  0.63008152  0.36380683
   0.82555150  0.35072658  0.62965960
   0.83569044  0.85739234  0.62489568
   0.80291709  0.46263493  0.26562745
   0.79622634  0.95882872  0.26425640
   0.06548665  0.33863669  0.42718292
   0.06540280  0.83446487  0.42859907
   0.69230775  0.00241636  0.09285971
   0.69501486  0.50393994  0.09101987
   0.27348648  0.49019841  0.93024890
   0.28601203  0.99474068  0.92026726
   0.92012198  0.14691399  0.57103399
   0.91854849  0.65310378  0.57249196
   0.56092681  0.39833472  0.89303053
   0.56342239  0.90508905  0.89748011
   0.62847832  0.15367084  0.59553417
   0.61834960  0.65541882  0.59559856
   0.41064856  0.35641397  0.39842249
   0.40685976  0.85829934  0.40858051
   0.41187418  0.10579293  0.13851996
   0.41017772  0.60215211  0.13145294
   0.26072291  0.26676928  0.54031954
   0.26216657  0.76299644  0.53730235
   0.61578952  0.19693033  0.12654561
   0.60083675  0.69344840  0.13665991
   0.35074040  0.30276308  0.88160559
   0.35460077  0.81060406  0.88510325
   0.80975545  0.29563810  0.41090291
   0.81833850  0.79396767  0.40589418
   0.28611845  0.37692248  0.12925540
   0.29433437  0.87836927  0.13989665
   0.62341454  0.33407113  0.62414601
   0.61637985  0.83375836  0.63128902
   0.48370310  0.19985202  0.32857246
   0.47526022  0.70031303  0.32921621
   0.65407871  0.12410823  0.89351597
   0.65158661  0.62054681  0.90918103
   0.15570154  0.35372938  0.88123215
   0.15216082  0.85556835  0.88874303
   0.09162930  0.07558504  0.62873253
   0.08005058  0.58037780  0.62789746
   0.86918716  0.41518940  0.38803350
   0.86680851  0.91964538  0.39375470
   0.82902467  0.13360247  0.12693787
   0.83297558  0.62735421  0.14035870
   0.34059019  0.26074610  0.26000067
   0.33642313  0.76364336  0.25354409
   0.36519023  0.38695099  0.63065777
   0.35220086  0.88609194  0.63012563
   0.71275613  0.13536512  0.34268076
   0.72469468  0.63425587  0.33010022
   0.61637788  0.26677465  0.77237342
   0.62508174  0.76822223  0.76044435
   0.85740829  0.35117782  0.11149908
   0.85352662  0.85040409  0.11660189
   0.11774312  0.39795508  0.58477199
   0.10954792  0.89519179  0.58586864
   0.91155055  0.08736858  0.37238198
   0.91206217  0.58613838  0.37292584
   0.14786819  0.14544726  0.92212271
   0.15362754  0.64609323  0.91918895
Direct configuration=     3
   0.96059802  0.00453358  0.28038225
   0.96116653  0.50472706  0.27800312
   0.03170560  0.46552172  0.73397792
   0.03169308  0.96561554  0.73275751
   0.53557584  0.29111217  0.24181501
   0.53882739  0.79103126  0.24022184
   0.48157591  0.21001128  0.74861916
   0.48581957  0.70508250  0.74463550
   0.94874766  0.43646588  0.92873255
   0.94580669  0.93953988  0.93054868
   0.17282488  0.48054396  0.42707900
   0.17384338  0.98264278  0.42998060
   0.82254916  0.00383066  0.55508815
   0.82449110  0.50224708  0.55724151
   0.02480864  0.04652108  0.09331110
   0.02407494  0.54838107  0.09260653
   0.09149186  0.48528874  0.34779620
   0.08907026  0.98365580  0.34973503
   0.94795349  0.05560704  0.92848022
   0.94607703  0.55459661  0.93086942
   0.03507808  0.44937626  0.09704814
   0.03195950  0.94548515  0.09649181
   0.89544579  0.50150751  0.64273714
   0.89422839  0.99639432  0.64460710
   0.52809696  0.32012451  0.06009739
   0.52405001  0.81948278  0.06525583
   0.42016763  0.24558314  0.62572700
   0.41919627  0.74621446  0.62667055
   0.63910023  0.28211700  0.34974747
   0.64113638  0.78144224  0.34718303
   0.43106231  0.18727071  0.95715304
   0.42742388  0.68869624  0.95991783
   0.46670578  0.16248851  0.51964070
   0.46645974  0.66284675  0.52111798
   0.65073240  0.27919244  0.93990560
   0.64957805  0.77977320  0.93738075
   0.29734435  0.22922753  0.08335992
   0.30450252  0.72997410  0.07692575
   0.58644305  0.35934112  0.45984572
   0.58576940  0.85911817  0.46227913
   0.09667618  0.49377675  0.87468605
   0.09795242  0.99600968  0.87314512
   0.10504256  0.06442198  0.41595940
   0.10902580  0.56670463  0.41118775
   0.87452992  0.41905858  0.57453352
   0.88337992  0.92191481  0.57164334
   0.86934696  0.48433119  0.16428118
   0.86298685  0.98082198  0.16491419
   0.06210594  0.41111951  0.43459934
   0.05924314  0.90949733  0.43474932
   0.81530944  0.49621697  0.05519996
   0.81598837  0.99603914  0.05411660
   0.16253404  0.49964273  0.97138929
   0.15748738  0.99615205  0.97209618
   0.94321007  0.08228182  0.54346470
   0.94381534  0.58262852  0.54098300
   0.52486682  0.33954294  0.94152006
   0.52688916  0.83847750  0.94185047
   0.58921775  0.20527194  0.54860125
   0.59011394  0.70393219  0.54706691
   0.48566775  0.32062220  0.41867119
   0.48543718  0.82094007  0.41655514
   0.43183422  0.15728139  0.07615426
   0.42590961  0.65912728  0.07479446
   0.37684166  0.24370161  0.52657427
   0.38003044  0.74508538  0.52022419
   0.56994049  0.21817950  0.07013512
   0.56785624  0.71472425  0.07124491
   0.38833656  0.28171090  0.94960096
   0.39202131  0.78061894  0.94553691
   0.69702977  0.27983086  0.43518352
   0.69488243  0.78023285  0.44116119
   0.37501948  0.32977360  0.07161026
   0.36971504  0.83106939  0.07371426
   0.56586957  0.30770957  0.57901912
   0.56918902  0.81130154  0.57463782
   0.50247041  0.20790212  0.39943180
   0.49970579  0.70956380  0.40115835
   0.59750757  0.18332303  0.94034906
   0.59767796  0.68276139  0.94073746
   0.09352097  0.41144772  0.93243975
   0.09253876  0.91244813  0.93070176
   0.07634899  0.04626929  0.54801796
   0.07778259  0.54576166  0.55123190
   0.91987139  0.45088275  0.43662448
   0.92175288  0.95312422  0.43911684
   0.89868922  0.07169426  0.07673044
   0.89943869  0.57082326  0.07880279
   0.38434051  0.24733176  0.15855218
   0.37965111  0.74757508  0.15785449
   0.42453911  0.33829487  0.56137389
   0.42379187  0.83668003  0.56603620
   0.63761956  0.18651923  0.39719818
   0.63899712  0.68829617  0.40089302
   0.55541307  0.25287004  0.87537830
   0.55911022  0.74929892  0.87612591
   0.89915020  0.41544376  0.05914079
   0.89444069  0.91419977  0.06205514
   0.05711236  0.44536699  0.55679649
   0.05932123  0.94808241  0.55450323
   0.95884844  0.05724803  0.42182877
   0.95871692  0.55612188  0.42437887
   0.08411964  0.08204675  0.95963115
   0.08149878  0.58718024  0.96092557
   0.91461090  0.39373458  0.87145678
   0.90979626  0.89689989  0.86776484
   0.27956890  0.47990894  0.41712892
   0.28491357  0.97635127  0.42094110
   0.72646828  0.02151844  0.55670782
   0.70635375  0.52605357  0.56797881
   0.02027681  0.10417360  0.15385895
   0.03510843  0.59739043  0.14693211
   0.14698498  0.48445013  0.22829773
   0.13293011  0.98454605  0.24748841
   0.97863629  0.09981293  0.83721732
   0.95862053  0.60475771  0.86027849
   0.07407131  0.41309810  0.15958961
   0.06090683  0.91485134  0.16058219
   0.83686849  0.01837227  0.74316597
   0.82661666  0.51526986  0.75241153
   0.50856970  0.36620708  0.14766893
   0.51918797  0.86434522  0.13035728
   0.33929985  0.24956842  0.72874071
   0.33638521  0.74758484  0.71917079
   0.72907375  0.28800609  0.23465873
   0.72714929  0.78738109  0.23327529
   0.37394285  0.14135219  0.91708778
   0.39397369  0.63580702  0.90840941
   0.43573296  0.09590785  0.50867126
   0.44022636  0.59950409  0.50423159
   0.77405985  0.28262559  0.86386433
   0.78427204  0.78447649  0.87643164
   0.17649062  0.21957280  0.13408046
   0.17324744  0.72629151  0.14132888
   0.64952965  0.41818718  0.45409119
   0.64790602  0.92090619  0.44799319
   0.16997102  0.00746110  0.77100383
   0.16216686  0.51505631  0.77517052
   0.19096713  0.11600673  0.35712808
   0.15503561  0.63228281  0.36576274
   0.82675642  0.34908143  0.62884935
   0.84114507  0.85814676  0.62237736
   0.80149217  0.46268425  0.26959546
   0.79143837  0.95697413  0.26784922
   0.06501335  0.33980858  0.42570260
   0.06470062  0.83419817  0.42787929
   0.69187614  0.00115405  0.09167762
   0.69516177  0.50342458  0.08924932
   0.27474440  0.48878303  0.93317206
   0.28803654  0.99575225  0.92037929
   0.92107114  0.15260640  0.56999767
   0.91950175  0.65984278  0.57119146
   0.55794567  0.39739623  0.89265423
   0.56080529  0.90586553  0.90034264
   0.63200957  0.15479594  0.59529692
   0.61787975  0.65653291  0.59594006
   0.41573213  0.35848265  0.39653982
   0.40936726  0.86166111  0.41139281
   0.41202696  0.10641123  0.14000236
   0.40953346  0.60140114  0.12909726
   0.25574511  0.26754803  0.54195932
   0.25767621  0.76211498  0.53747976
   0.62047282  0.19909672  0.12582634
   0.59829358  0.69380918  0.14075808
   0.34960939  0.30058906  0.88292670
   0.35524068  0.81219849  0.88756011
   0.80936192  0.29485707  0.41229128
   0.82035903  0.79224384  0.40541595
   0.28306825  0.37625698  0.12733699
   0.29470131  0.87858848  0.14326071
   0.62651555  0.33468992  0.62295654
   0.61596129  0.83416826  0.63325101
   0.48605317  0.19698434  0.32105469
   0.47400777  0.69787381  0.32378013
   0.65402081  0.12480916  0.89238689
   0.65017298  0.61952344  0.91560987
   0.15756157  0.35504064  0.87580416
   0.15309532  0.85697659  0.88631490
   0.09714054  0.07364645  0.62869341
   0.08022855  0.58113961  0.62856809
   0.86965766  0.41456454  0.38850641
   0.86580870  0.92089799  0.39665840
   0.82855811  0.13536804  0.12278178
   0.83371941  0.62666157  0.14290889
   0.33714750  0.25995736  0.26768337
   0.32986860  0.76451715  0.26015598
   0.36284815  0.38930079  0.63813624
   0.34399710  0.88767344  0.63691159
   0.71337004  0.13424158  0.34562838
   0.72900542  0.63389750  0.32871303
   0.61650118  0.26448016  0.77481790
   0.62797742  0.76621722  0.75942598
   0.85697794  0.35297919  0.11164226
   0.85131002  0.85194441  0.11897154
   0.12123011  0.39960904  0.58422776
   0.10917195  0.89560288  0.58584220
   0.91042567  0.08987394  0.36694976
   0.91119262  0.58804283  0.36785589
   0.14564758  0.14363075  0.92234654
   0.15404641  0.64470719  0.91802541
Direct configuration=     4
   0.96072983  0.00418886  0.27999621
   0.96150811  0.50445133  0.27685246
   0.03086747  0.46553904  0.73434318
   0.03085157  0.96566403  0.73271921
   0.53498910  0.29099655  0.24241891
   0.53931479  0.79088604  0.24028740
   0.48121326  0.21107108  0.74912236
   0.48685744  0.70451858  0.74382318
   0.94847195  0.43686612  0.92838912
   0.94456592  0.94088362  0.93073874
   0.17290726  0.48054970  0.42621151
   0.17452563  0.98322523  0.42990979
   0.82190741  0.00491000  0.55490434
   0.82389400  0.50293296  0.55771155
   0.02556264  0.04630194  0.09399567
   0.02482318  0.54862812  0.09288539
   0.09259217  0.48562089  0.34728422
   0.08929609  0.98348280  0.35016221
   0.94866969  0.05612116  0.92807457
   0.94611346  0.55477424  0.93140539
   0.03631400  0.44928717  0.09548880
   0.03198881  0.94428161  0.09468895
   0.89491388  0.50295029  0.64253764
   0.89342144  0.99629716  0.64482391
   0.52936841  0.32005451  0.05907051
   0.52409976  0.81893440  0.06543979
   0.42046307  0.24599276  0.62592663
   0.41950153  0.74679227  0.62671199
   0.63896410  0.28225885  0.34997949
   0.64159107  0.78139386  0.34675089
   0.43134201  0.18625453  0.95632415
   0.42678307  0.68803439  0.95963988
   0.46667474  0.16250277  0.51989456
   0.46637867  0.66311093  0.52180089
   0.65162204  0.27910207  0.93983725
   0.65027575  0.77986638  0.93662667
   0.29569639  0.22932577  0.08539253
   0.30450207  0.73037310  0.07725595
   0.58736559  0.35930541  0.45904010
   0.58643833  0.85908918  0.46214174
   0.09713902  0.49368671  0.87463321
   0.09879285  0.99655186  0.87262831
   0.10498514  0.06443603  0.41726517
   0.11006596  0.56744434  0.41114751
   0.87523535  0.41824557  0.57407475
   0.88697990  0.92209271  0.57015265
   0.87092297  0.48526500  0.16321881
   0.86252756  0.98068809  0.16405082
   0.06199013  0.41056689  0.43510329
   0.05832102  0.90837057  0.43534239
   0.81610725  0.49619020  0.05539508
   0.81684733  0.99596146  0.05401163
   0.16182553  0.49978847  0.97121821
   0.15592521  0.99512763  0.97187602
   0.94360796  0.08240908  0.54361912
   0.94439715  0.58305709  0.54054434
   0.52398907  0.33918243  0.94256444
   0.52672371  0.83797875  0.94293080
   0.59004484  0.20573168  0.54828232
   0.59105968  0.70412083  0.54625052
   0.48502276  0.32053433  0.41890674
   0.48490072  0.82090388  0.41620380
   0.43197944  0.15689237  0.07654308
   0.42410388  0.65924261  0.07492085
   0.37589930  0.24445361  0.52800795
   0.38001525  0.74626851  0.51986313
   0.57024947  0.21897501  0.07073472
   0.56739785  0.71446604  0.07226406
   0.38751076  0.28179503  0.95066044
   0.39243828  0.78045055  0.94530412
   0.69815947  0.27944932  0.43505319
   0.69565477  0.78000048  0.44265852
   0.37450563  0.32954585  0.07169254
   0.36779394  0.83119197  0.07433231
   0.56402706  0.30748287  0.57930534
   0.56826990  0.81218486  0.57384545
   0.50278796  0.20802096  0.39964744
   0.49939354  0.71012815  0.40159049
   0.59696456  0.18358779  0.94034991
   0.59723911  0.68278669  0.94092313
   0.09232504  0.41069963  0.93409564
   0.09086580  0.91212444  0.93190612
   0.07597560  0.04558386  0.54709666
   0.07776905  0.54487281  0.55104853
   0.91999679  0.44993029  0.43517212
   0.92249577  0.95290428  0.43840687
   0.89762275  0.07194639  0.07598787
   0.89858221  0.57076335  0.07872767
   0.38508184  0.24693495  0.15850901
   0.37900376  0.74724856  0.15740925
   0.42466375  0.33845148  0.56048014
   0.42366372  0.83637591  0.56652124
   0.63703151  0.18595100  0.39650861
   0.63901015  0.68813897  0.40109324
   0.55554810  0.25391000  0.87561077
   0.56066213  0.74933161  0.87613252
   0.90060397  0.41512938  0.05909030
   0.89439237  0.91345477  0.06283216
   0.05648055  0.44433268  0.55711092
   0.05925906  0.94778579  0.55417085
   0.95856184  0.05709862  0.42197912
   0.95834861  0.55555841  0.42516060
   0.08427866  0.08157074  0.95943688
   0.08087747  0.58828460  0.96114317
   0.91724302  0.39264248  0.86970168
   0.91132309  0.89725854  0.86553400
   0.28842324  0.48138685  0.41286464
   0.29242513  0.97696811  0.41828450
   0.72729703  0.02068914  0.55244790
   0.70697254  0.52551768  0.56644053
   0.02052602  0.10573462  0.15433012
   0.04007924  0.59838123  0.14687828
   0.15070079  0.48328644  0.22617806
   0.13467864  0.98327388  0.24709484
   0.97823149  0.09841258  0.83681747
   0.95249895  0.60539308  0.86569185
   0.07628413  0.41331775  0.16125562
   0.06008601  0.91438442  0.16421637
   0.83674783  0.01793162  0.74159276
   0.82470618  0.51370833  0.75148006
   0.50967803  0.36617571  0.14974684
   0.52310348  0.86583076  0.13062710
   0.33832046  0.24824443  0.72762228
   0.33140762  0.74565945  0.71910776
   0.73225275  0.28862390  0.23437206
   0.73024014  0.78775554  0.23230660
   0.36804341  0.14142355  0.91697389
   0.39388423  0.63432550  0.90587590
   0.43347372  0.09393487  0.51231443
   0.43885360  0.59756135  0.50636586
   0.76940002  0.28387370  0.86288480
   0.78061812  0.78615343  0.88002361
   0.17292609  0.21819450  0.13593682
   0.17183279  0.72709649  0.14376011
   0.65153348  0.41899538  0.45507943
   0.64907672  0.92223665  0.44726540
   0.16970039  0.00633622  0.77124257
   0.15942902  0.51628445  0.77667851
   0.19752805  0.11310100  0.35652083
   0.15106581  0.63400531  0.36768110
   0.82847881  0.34866631  0.62709149
   0.84627607  0.85918252  0.61958656
   0.79986580  0.46320631  0.27325436
   0.78659554  0.95565186  0.27132893
   0.06541318  0.34106834  0.42363084
   0.06466904  0.83473345  0.42663965
   0.69181089  0.99977220  0.09025895
   0.69502538  0.50274925  0.08754338
   0.27879244  0.48737751  0.93538887
   0.28899791  0.99675043  0.92129387
   0.92160335  0.15800203  0.56919396
   0.92037867  0.66529480  0.56965924
   0.55555878  0.39752387  0.89133808
   0.55808225  0.90623234  0.90308939
   0.63531354  0.15647867  0.59486823
   0.61828789  0.65734194  0.59660135
   0.42056171  0.36078684  0.39377375
   0.41104269  0.86561055  0.41300247
   0.41175404  0.10609983  0.14175870
   0.40848378  0.60013156  0.12677636
   0.25203184  0.26743542  0.54371569
   0.25436457  0.76059869  0.53779727
   0.62562150  0.20115766  0.12502908
   0.59657224  0.69399499  0.14447463
   0.34815909  0.29843014  0.88461601
   0.35540114  0.81364531  0.88973410
   0.80990431  0.29390805  0.41332670
   0.82145137  0.79027428  0.40524161
   0.28023115  0.37583993  0.12545803
   0.29462216  0.87915946  0.14649931
   0.62875457  0.33533333  0.62243249
   0.61487365  0.83462821  0.63541754
   0.48780067  0.19342786  0.31326937
   0.47261537  0.69486680  0.31870844
   0.65501203  0.12521773  0.89068774
   0.64960165  0.61837674  0.92119033
   0.15947550  0.35618445  0.87068815
   0.15497416  0.85741051  0.88334122
   0.10316497  0.07169883  0.62742050
   0.08150684  0.58200431  0.62883955
   0.87032892  0.41406998  0.38890863